# Force and moment coefficients
# dragDir     : (1.000000e+00 0.000000e+00 0.000000e+00)
# sideDir     : (0.000000e+00 0.000000e+00 -1.000000e+00)
# liftDir     : (0.000000e+00 1.000000e+00 0.000000e+00)
# rollAxis    : (1.000000e+00 0.000000e+00 0.000000e+00)
# pitchAxis   : (0.000000e+00 0.000000e+00 -1.000000e+00)
# yawAxis     : (0.000000e+00 1.000000e+00 0.000000e+00)
# magUInf     : 9.000000e+00
# lRef        : 1.000000e+00
# Aref        : 1.000000e-01
# CofR        : (2.500000e-01 0.000000e+00 0.000000e+00)
#
# Time        	Cd            	Cd(f)         	Cd(r)         	Cl            	Cl(f)         	Cl(r)         	CmPitch       	CmRoll        	CmYaw         	Cs            	Cs(f)         	Cs(r)         
540           	1.874884e-01	3.291124e-02	1.545772e-01	1.216660e+00	5.548141e-01	6.618455e-01	-5.351572e-02	-6.083298e-02	9.374422e-03	-1.558488e-19	9.374422e-03	-9.374422e-03
550           	1.874647e-01	3.288677e-02	1.545780e-01	1.216912e+00	5.550020e-01	6.619101e-01	-5.345405e-02	-6.084560e-02	9.373237e-03	-1.559079e-19	9.373237e-03	-9.373237e-03
560           	1.874538e-01	3.286420e-02	1.545896e-01	1.217254e+00	5.552189e-01	6.620352e-01	-5.340816e-02	-6.086271e-02	9.372690e-03	-1.559660e-19	9.372690e-03	-9.372690e-03
570           	1.874543e-01	3.284445e-02	1.546098e-01	1.217654e+00	5.554497e-01	6.622039e-01	-5.337712e-02	-6.088268e-02	9.372713e-03	-1.560209e-19	9.372713e-03	-9.372713e-03
