# Force and moment coefficients
# dragDir     : (1.000000e+00 0.000000e+00 0.000000e+00)
# sideDir     : (0.000000e+00 0.000000e+00 -1.000000e+00)
# liftDir     : (0.000000e+00 1.000000e+00 0.000000e+00)
# rollAxis    : (1.000000e+00 0.000000e+00 0.000000e+00)
# pitchAxis   : (0.000000e+00 0.000000e+00 -1.000000e+00)
# yawAxis     : (0.000000e+00 1.000000e+00 0.000000e+00)
# magUInf     : 9.000000e+00
# lRef        : 1.000000e+00
# Aref        : 1.000000e-01
# CofR        : (2.500000e-01 0.000000e+00 0.000000e+00)
#
# Time        	Cd            	Cd(f)         	Cd(r)         	Cl            	Cl(f)         	Cl(r)         	CmPitch       	CmRoll        	CmYaw         	Cs            	Cs(f)         	Cs(r)         
10            	-6.234993e+00	-3.092683e+00	-3.142310e+00	-4.962628e-01	2.358810e+00	-2.855073e+00	2.606941e+00	2.481314e-02	-3.117496e-01	2.279289e-18	-3.117496e-01	3.117496e-01
20            	1.903439e+00	8.766336e-01	1.026805e+00	1.501719e+00	-2.715765e-01	1.773295e+00	-1.022436e+00	-7.508593e-02	9.517195e-02	-1.074789e-18	9.517195e-02	-9.517195e-02
30            	6.100915e-01	2.061590e-01	4.039325e-01	1.977735e+00	4.350187e-01	1.542717e+00	-5.538490e-01	-9.888677e-02	3.050458e-02	-8.182345e-19	3.050458e-02	-3.050458e-02
40            	6.016648e-01	2.295140e-01	3.721508e-01	1.426368e+00	2.796043e-01	1.146764e+00	-4.335798e-01	-7.131841e-02	3.008324e-02	-5.331196e-19	3.008324e-02	-3.008324e-02
50            	5.953579e-01	2.185217e-01	3.768362e-01	1.583146e+00	3.434146e-01	1.239731e+00	-4.481582e-01	-7.915728e-02	2.976789e-02	-5.465339e-19	2.976789e-02	-2.976789e-02
60            	5.807088e-01	2.062829e-01	3.744258e-01	1.681429e+00	3.961000e-01	1.285329e+00	-4.446145e-01	-8.407145e-02	2.903544e-02	-5.004471e-19	2.903544e-02	-2.903544e-02
70            	5.685746e-01	1.956943e-01	3.728803e-01	1.771860e+00	4.425508e-01	1.329309e+00	-4.433790e-01	-8.859298e-02	2.842873e-02	-4.794367e-19	2.842873e-02	-2.842873e-02
80            	5.554474e-01	1.863793e-01	3.690681e-01	1.826888e+00	4.745269e-01	1.352361e+00	-4.389173e-01	-9.134442e-02	2.777237e-02	-5.586213e-19	2.777237e-02	-2.777237e-02
90            	5.408758e-01	1.779919e-01	3.628839e-01	1.848920e+00	4.927462e-01	1.356173e+00	-4.317136e-01	-9.244598e-02	2.704379e-02	-5.581602e-19	2.704379e-02	-2.704379e-02
100           	5.252214e-01	1.705587e-01	3.546627e-01	1.841040e+00	4.984762e-01	1.342564e+00	-4.220439e-01	-9.205201e-02	2.626107e-02	-5.518656e-19	2.626107e-02	-2.626107e-02
110           	5.044943e-01	1.622924e-01	3.422020e-01	1.799096e+00	4.922734e-01	1.306822e+00	-4.072745e-01	-8.995478e-02	2.522472e-02	-5.221750e-19	2.522472e-02	-2.522472e-02
120           	4.718387e-01	1.499000e-01	3.219387e-01	1.720387e+00	4.777491e-01	1.242638e+00	-3.824445e-01	-8.601936e-02	2.359193e-02	-4.992017e-19	2.359193e-02	-2.359193e-02
130           	4.283748e-01	1.338746e-01	2.945002e-01	1.606257e+00	4.559066e-01	1.150350e+00	-3.472219e-01	-8.031285e-02	2.141874e-02	-4.664229e-19	2.141874e-02	-2.141874e-02
140           	3.810535e-01	1.169330e-01	2.641205e-01	1.471875e+00	4.286102e-01	1.043265e+00	-3.073272e-01	-7.359374e-02	1.905268e-02	-4.283369e-19	1.905268e-02	-1.905268e-02
150           	3.469152e-01	1.056195e-01	2.412957e-01	1.356762e+00	4.006203e-01	9.561414e-01	-2.777605e-01	-6.783808e-02	1.734576e-02	-4.019635e-19	1.734576e-02	-1.734576e-02
160           	3.420409e-01	1.057528e-01	2.362882e-01	1.305354e+00	3.793664e-01	9.259880e-01	-2.733108e-01	-6.526772e-02	1.710205e-02	-4.064806e-19	1.710205e-02	-1.710205e-02
170           	3.587297e-01	1.139947e-01	2.447350e-01	1.307403e+00	3.659730e-01	9.414302e-01	-2.877286e-01	-6.537016e-02	1.793649e-02	-4.174401e-19	1.793649e-02	-1.793649e-02
180           	3.691685e-01	1.200529e-01	2.491157e-01	1.290628e+00	3.497604e-01	9.408676e-01	-2.955536e-01	-6.453140e-02	1.845843e-02	-4.089008e-19	1.845843e-02	-1.845843e-02
190           	3.654499e-01	1.206665e-01	2.447834e-01	1.241170e+00	3.306987e-01	9.104711e-01	-2.898862e-01	-6.205849e-02	1.827249e-02	-3.938446e-19	1.827249e-02	-1.827249e-02
200           	3.673534e-01	1.230792e-01	2.442742e-01	1.211950e+00	3.166809e-01	8.952692e-01	-2.892942e-01	-6.059751e-02	1.836767e-02	-3.932849e-19	1.836767e-02	-1.836767e-02
210           	3.801232e-01	1.288293e-01	2.512939e-01	1.224646e+00	3.129112e-01	9.117347e-01	-2.994117e-01	-6.123229e-02	1.900616e-02	-4.021728e-19	1.900616e-02	-1.900616e-02
220           	3.928039e-01	1.339337e-01	2.588702e-01	1.249365e+00	3.145970e-01	9.347678e-01	-3.100854e-01	-6.246824e-02	1.964019e-02	-4.142014e-19	1.964019e-02	-1.964019e-02
230           	3.977184e-01	1.357536e-01	2.619647e-01	1.262111e+00	3.170661e-01	9.450449e-01	-3.139894e-01	-6.310555e-02	1.988592e-02	-4.169256e-19	1.988592e-02	-1.988592e-02
240           	3.985094e-01	1.358139e-01	2.626954e-01	1.268815e+00	3.201307e-01	9.486841e-01	-3.142767e-01	-6.344074e-02	1.992547e-02	-4.172256e-19	1.992547e-02	-1.992547e-02
250           	3.989145e-01	1.355535e-01	2.633610e-01	1.278075e+00	3.245026e-01	9.535726e-01	-3.145350e-01	-6.390376e-02	1.994573e-02	-4.193198e-19	1.994573e-02	-1.994573e-02
260           	3.992853e-01	1.352865e-01	2.639989e-01	1.287124e+00	3.285943e-01	9.585301e-01	-3.149679e-01	-6.435622e-02	1.996427e-02	-4.217785e-19	1.996427e-02	-1.996427e-02
270           	3.977507e-01	1.343427e-01	2.634080e-01	1.290653e+00	3.315067e-01	9.591462e-01	-3.138197e-01	-6.453265e-02	1.988753e-02	-4.223031e-19	1.988753e-02	-1.988753e-02
280           	3.950223e-01	1.330644e-01	2.619578e-01	1.288934e+00	3.328033e-01	9.561306e-01	-3.116636e-01	-6.444670e-02	1.975111e-02	-4.212801e-19	1.975111e-02	-1.975111e-02
290           	3.931065e-01	1.322097e-01	2.608967e-01	1.286870e+00	3.332677e-01	9.536024e-01	-3.101673e-01	-6.434350e-02	1.965532e-02	-4.207465e-19	1.965532e-02	-1.965532e-02
300           	3.922764e-01	1.318504e-01	2.604260e-01	1.285757e+00	3.333196e-01	9.524371e-01	-3.095587e-01	-6.428783e-02	1.961382e-02	-4.207039e-19	1.961382e-02	-1.961382e-02
310           	3.918557e-01	1.317419e-01	2.601138e-01	1.283719e+00	3.326405e-01	9.510786e-01	-3.092191e-01	-6.418596e-02	1.959279e-02	-4.201914e-19	1.959279e-02	-1.959279e-02
320           	3.914802e-01	1.316941e-01	2.597860e-01	1.280919e+00	3.316223e-01	9.492968e-01	-3.088372e-01	-6.404595e-02	1.957401e-02	-4.191773e-19	1.957401e-02	-1.957401e-02
330           	3.912094e-01	1.317216e-01	2.594879e-01	1.277663e+00	3.303320e-01	9.473309e-01	-3.084995e-01	-6.388315e-02	1.956047e-02	-4.180165e-19	1.956047e-02	-1.956047e-02
340           	3.912155e-01	1.318437e-01	2.593718e-01	1.275281e+00	3.292352e-01	9.460455e-01	-3.084051e-01	-6.376404e-02	1.956078e-02	-4.173010e-19	1.956078e-02	-1.956078e-02
350           	3.913020e-01	1.319647e-01	2.593373e-01	1.273726e+00	3.284397e-01	9.452862e-01	-3.084232e-01	-6.368629e-02	1.956510e-02	-4.168466e-19	1.956510e-02	-1.956510e-02
360           	3.912669e-01	1.320039e-01	2.592630e-01	1.272590e+00	3.279258e-01	9.446645e-01	-3.083694e-01	-6.362951e-02	1.956335e-02	-4.165115e-19	1.956335e-02	-1.956335e-02
370           	3.912031e-01	1.320053e-01	2.591978e-01	1.271925e+00	3.276523e-01	9.442729e-01	-3.083103e-01	-6.359626e-02	1.956015e-02	-4.163347e-19	1.956015e-02	-1.956015e-02
380           	3.912311e-01	1.320183e-01	2.592127e-01	1.271944e+00	3.276211e-01	9.443228e-01	-3.083508e-01	-6.359719e-02	1.956155e-02	-4.164257e-19	1.956155e-02	-1.956155e-02
390           	3.912926e-01	1.320340e-01	2.592586e-01	1.272247e+00	3.277009e-01	9.445457e-01	-3.084224e-01	-6.361233e-02	1.956463e-02	-4.165896e-19	1.956463e-02	-1.956463e-02
400           	3.913230e-01	1.320326e-01	2.592904e-01	1.272578e+00	3.278196e-01	9.447581e-01	-3.084692e-01	-6.362889e-02	1.956615e-02	-4.167351e-19	1.956615e-02	-1.956615e-02
410           	3.913287e-01	1.320254e-01	2.593033e-01	1.272780e+00	3.279057e-01	9.448740e-01	-3.084842e-01	-6.363898e-02	1.956643e-02	-4.167968e-19	1.956643e-02	-1.956643e-02
420           	3.913421e-01	1.320206e-01	2.593215e-01	1.273010e+00	3.279984e-01	9.450113e-01	-3.085065e-01	-6.365049e-02	1.956710e-02	-4.168712e-19	1.956710e-02	-1.956710e-02
430           	3.913499e-01	1.320171e-01	2.593328e-01	1.273158e+00	3.280577e-01	9.451002e-01	-3.085213e-01	-6.365790e-02	1.956749e-02	-4.168993e-19	1.956749e-02	-1.956749e-02
440           	3.913336e-01	1.320075e-01	2.593261e-01	1.273186e+00	3.280825e-01	9.451035e-01	-3.085105e-01	-6.365930e-02	1.956668e-02	-4.168897e-19	1.956668e-02	-1.956668e-02
450           	3.913027e-01	1.319950e-01	2.593076e-01	1.273126e+00	3.280763e-01	9.450499e-01	-3.084868e-01	-6.365631e-02	1.956513e-02	-4.168487e-19	1.956513e-02	-1.956513e-02
460           	3.912675e-01	1.319831e-01	2.592844e-01	1.273013e+00	3.280496e-01	9.449638e-01	-3.084571e-01	-6.365067e-02	1.956338e-02	-4.168062e-19	1.956338e-02	-1.956338e-02
470           	3.912419e-01	1.319759e-01	2.592660e-01	1.272901e+00	3.280176e-01	9.448834e-01	-3.084329e-01	-6.364505e-02	1.956209e-02	-4.167734e-19	1.956209e-02	-1.956209e-02
480           	3.912179e-01	1.319698e-01	2.592481e-01	1.272782e+00	3.279788e-01	9.448035e-01	-3.084123e-01	-6.363912e-02	1.956089e-02	-4.167365e-19	1.956089e-02	-1.956089e-02
