# Force and moment coefficients
# dragDir     : (1.000000e+00 0.000000e+00 0.000000e+00)
# sideDir     : (0.000000e+00 0.000000e+00 -1.000000e+00)
# liftDir     : (0.000000e+00 1.000000e+00 0.000000e+00)
# rollAxis    : (1.000000e+00 0.000000e+00 0.000000e+00)
# pitchAxis   : (0.000000e+00 0.000000e+00 -1.000000e+00)
# yawAxis     : (0.000000e+00 1.000000e+00 0.000000e+00)
# magUInf     : 9.000000e+00
# lRef        : 1.000000e+00
# Aref        : 1.000000e-01
# CofR        : (2.500000e-01 0.000000e+00 0.000000e+00)
#
# Time        	Cd            	Cd(f)         	Cd(r)         	Cl            	Cl(f)         	Cl(r)         	CmPitch       	CmRoll        	CmYaw         	Cs            	Cs(f)         	Cs(r)         
10            	-1.711045e+02	-8.782291e+01	-8.328160e+01	4.541307e+01	-9.024127e+01	1.356543e+02	-1.129478e+02	-2.270653e+00	-8.555225e+00	-4.691110e-17	-8.555225e+00	8.555225e+00
20            	2.136123e+01	1.099478e+01	1.036645e+01	-6.283292e+00	9.921641e+00	-1.620493e+01	1.306329e+01	3.141646e-01	1.068062e+00	3.917223e-18	1.068062e+00	-1.068062e+00
30            	3.923934e+00	2.039718e+00	1.884216e+00	-1.555012e+00	1.096238e+00	-2.651250e+00	1.873744e+00	7.775060e-02	1.961967e-01	1.069090e-18	1.961967e-01	-1.961967e-01
40            	2.657193e+00	1.320070e+00	1.337124e+00	1.705440e-01	5.849769e-01	-4.144329e-01	4.997049e-01	-8.527201e-03	1.328597e-01	5.216654e-19	1.328597e-01	-1.328597e-01
50            	3.011549e+00	1.530014e+00	1.481535e+00	-4.847952e-01	6.895858e-01	-1.174381e+00	9.319834e-01	2.423976e-02	1.505775e-01	7.006936e-19	1.505775e-01	-1.505775e-01
60            	3.060182e+00	1.561461e+00	1.498721e+00	-6.274025e-01	7.194270e-01	-1.346830e+00	1.033128e+00	3.137013e-02	1.530091e-01	7.768241e-19	1.530091e-01	-1.530091e-01
70            	3.027724e+00	1.554472e+00	1.473252e+00	-8.121955e-01	7.043920e-01	-1.516588e+00	1.110490e+00	4.060977e-02	1.513862e-01	7.781914e-19	1.513862e-01	-1.513862e-01
80            	3.035012e+00	1.561635e+00	1.473376e+00	-8.825905e-01	7.326026e-01	-1.615193e+00	1.173898e+00	4.412952e-02	1.517506e-01	8.017837e-19	1.517506e-01	-1.517506e-01
90            	3.022015e+00	1.559532e+00	1.462483e+00	-9.704918e-01	7.555522e-01	-1.726044e+00	1.240798e+00	4.852459e-02	1.511008e-01	8.280916e-19	1.511008e-01	-1.511008e-01
100           	3.000561e+00	1.554463e+00	1.446098e+00	-1.083658e+00	7.687551e-01	-1.852413e+00	1.310584e+00	5.418290e-02	1.500280e-01	8.417155e-19	1.500280e-01	-1.500280e-01
110           	2.989716e+00	1.553533e+00	1.436183e+00	-1.173498e+00	7.982549e-01	-1.971752e+00	1.385004e+00	5.867488e-02	1.494858e-01	8.853837e-19	1.494858e-01	-1.494858e-01
120           	2.987190e+00	1.557475e+00	1.429715e+00	-1.277599e+00	8.308160e-01	-2.108415e+00	1.469615e+00	6.387994e-02	1.493595e-01	8.546674e-19	1.493595e-01	-1.493595e-01
130           	2.993162e+00	1.566200e+00	1.426962e+00	-1.392384e+00	8.678186e-01	-2.260202e+00	1.564010e+00	6.961919e-02	1.496581e-01	8.340176e-19	1.496581e-01	-1.496581e-01
140           	3.005213e+00	1.577795e+00	1.427418e+00	-1.503772e+00	9.079435e-01	-2.411716e+00	1.659830e+00	7.518861e-02	1.502606e-01	8.362612e-19	1.502606e-01	-1.502606e-01
150           	3.014794e+00	1.589351e+00	1.425443e+00	-1.639087e+00	9.426258e-01	-2.581713e+00	1.762169e+00	8.195436e-02	1.507397e-01	8.559220e-19	1.507397e-01	-1.507397e-01
160           	3.010175e+00	1.594294e+00	1.415881e+00	-1.784128e+00	9.599835e-01	-2.744111e+00	1.852047e+00	8.920639e-02	1.505087e-01	8.147819e-19	1.505087e-01	-1.505087e-01
170           	2.973516e+00	1.582981e+00	1.390536e+00	-1.924452e+00	9.450625e-01	-2.869514e+00	1.907288e+00	9.622258e-02	1.486758e-01	7.283226e-19	1.486758e-01	-1.486758e-01
180           	2.892041e+00	1.548730e+00	1.343310e+00	-2.054199e+00	8.910080e-01	-2.945207e+00	1.918107e+00	1.027099e-01	1.446020e-01	8.472944e-19	1.446020e-01	-1.446020e-01
190           	2.775888e+00	1.496583e+00	1.279305e+00	-2.172780e+00	8.111178e-01	-2.983898e+00	1.897508e+00	1.086390e-01	1.387944e-01	9.016665e-19	1.387944e-01	-1.387944e-01
200           	2.640738e+00	1.434672e+00	1.206066e+00	-2.286064e+00	7.217474e-01	-3.007812e+00	1.864780e+00	1.143032e-01	1.320369e-01	9.541355e-19	1.320369e-01	-1.320369e-01
210           	2.510048e+00	1.374477e+00	1.135571e+00	-2.389059e+00	6.420730e-01	-3.031132e+00	1.836603e+00	1.194530e-01	1.255024e-01	9.720781e-19	1.255024e-01	-1.255024e-01
220           	2.395593e+00	1.321907e+00	1.073686e+00	-2.482209e+00	5.822529e-01	-3.064461e+00	1.823357e+00	1.241104e-01	1.197797e-01	1.014808e-18	1.197797e-01	-1.197797e-01
230           	2.306549e+00	1.280616e+00	1.025934e+00	-2.546819e+00	5.523574e-01	-3.099176e+00	1.825767e+00	1.273410e-01	1.153275e-01	9.817597e-19	1.153275e-01	-1.153275e-01
240           	2.237634e+00	1.247142e+00	9.904915e-01	-2.566506e+00	5.509220e-01	-3.117428e+00	1.834175e+00	1.283253e-01	1.118817e-01	9.664987e-19	1.118817e-01	-1.118817e-01
250           	2.182607e+00	1.217841e+00	9.647661e-01	-2.530749e+00	5.714824e-01	-3.102231e+00	1.836857e+00	1.265374e-01	1.091304e-01	9.664039e-19	1.091304e-01	-1.091304e-01
260           	2.135842e+00	1.189789e+00	9.460521e-01	-2.437373e+00	6.045322e-01	-3.041906e+00	1.823219e+00	1.218687e-01	1.067921e-01	9.710796e-19	1.067921e-01	-1.067921e-01
270           	2.094575e+00	1.163211e+00	9.313645e-01	-2.318464e+00	6.392583e-01	-2.957722e+00	1.798490e+00	1.159232e-01	1.047288e-01	9.551300e-19	1.047288e-01	-1.047288e-01
280           	2.047650e+00	1.134222e+00	9.134282e-01	-2.207941e+00	6.593257e-01	-2.867267e+00	1.763296e+00	1.103970e-01	1.023825e-01	8.408242e-19	1.023825e-01	-1.023825e-01
290           	1.976620e+00	1.093889e+00	8.827312e-01	-2.111580e+00	6.557069e-01	-2.767287e+00	1.711497e+00	1.055790e-01	9.883102e-02	8.144059e-19	9.883102e-02	-9.883102e-02
300           	1.910244e+00	1.059270e+00	8.509734e-01	-2.082971e+00	6.339887e-01	-2.716959e+00	1.675474e+00	1.041485e-01	9.551219e-02	8.662877e-19	9.551219e-02	-9.551219e-02
310           	1.840094e+00	1.026331e+00	8.137628e-01	-2.125683e+00	5.971099e-01	-2.722793e+00	1.659952e+00	1.062842e-01	9.200470e-02	7.964176e-19	9.200470e-02	-9.200470e-02
320           	1.801184e+00	1.011659e+00	7.895248e-01	-2.221343e+00	5.651468e-01	-2.786490e+00	1.675818e+00	1.110672e-01	9.005920e-02	6.981624e-19	9.005920e-02	-9.005920e-02
330           	1.787319e+00	1.011940e+00	7.753787e-01	-2.365612e+00	5.387454e-01	-2.904358e+00	1.721552e+00	1.182806e-01	8.936593e-02	7.090718e-19	8.936593e-02	-8.936593e-02
340           	1.798995e+00	1.025500e+00	7.734950e-01	-2.520048e+00	5.163703e-01	-3.036418e+00	1.776394e+00	1.260024e-01	8.994974e-02	6.638109e-19	8.994974e-02	-8.994974e-02
350           	1.820666e+00	1.043438e+00	7.772278e-01	-2.662099e+00	4.996171e-01	-3.161716e+00	1.830667e+00	1.331050e-01	9.103328e-02	6.812852e-19	9.103328e-02	-9.103328e-02
360           	1.851627e+00	1.064720e+00	7.869072e-01	-2.778126e+00	4.912833e-01	-3.269409e+00	1.880346e+00	1.389063e-01	9.258135e-02	7.030484e-19	9.258135e-02	-9.258135e-02
370           	1.884661e+00	1.084531e+00	8.001300e-01	-2.844013e+00	4.921438e-01	-3.336157e+00	1.914151e+00	1.422007e-01	9.423307e-02	7.754374e-19	9.423307e-02	-9.423307e-02
380           	1.925634e+00	1.106361e+00	8.192728e-01	-2.870880e+00	5.028905e-01	-3.373771e+00	1.938331e+00	1.435440e-01	9.628168e-02	9.594567e-19	9.628168e-02	-9.628168e-02
390           	1.965587e+00	1.125452e+00	8.401349e-01	-2.853176e+00	5.216193e-01	-3.374796e+00	1.948207e+00	1.426588e-01	9.827937e-02	8.944032e-19	9.827937e-02	-9.827937e-02
400           	2.007508e+00	1.143325e+00	8.641830e-01	-2.791416e+00	5.500416e-01	-3.341458e+00	1.945750e+00	1.395708e-01	1.003754e-01	8.256600e-19	1.003754e-01	-1.003754e-01
410           	2.036621e+00	1.153867e+00	8.827537e-01	-2.711131e+00	5.783586e-01	-3.289490e+00	1.933924e+00	1.355566e-01	1.018310e-01	7.809148e-19	1.018310e-01	-1.018310e-01
420           	2.063681e+00	1.161723e+00	9.019581e-01	-2.597649e+00	6.137087e-01	-3.211357e+00	1.912533e+00	1.298824e-01	1.031841e-01	8.081169e-19	1.031841e-01	-1.031841e-01
430           	2.078898e+00	1.163781e+00	9.151167e-01	-2.486645e+00	6.454359e-01	-3.132081e+00	1.888758e+00	1.243322e-01	1.039449e-01	7.682378e-19	1.039449e-01	-1.039449e-01
440           	2.086852e+00	1.162513e+00	9.243385e-01	-2.381746e+00	6.738756e-01	-3.055621e+00	1.864748e+00	1.190873e-01	1.043426e-01	7.011285e-19	1.043426e-01	-1.043426e-01
450           	2.090154e+00	1.158624e+00	9.315300e-01	-2.270940e+00	7.020545e-01	-2.972995e+00	1.837525e+00	1.135470e-01	1.045077e-01	5.482332e-19	1.045077e-01	-1.045077e-01
460           	2.088495e+00	1.153154e+00	9.353408e-01	-2.178130e+00	7.234108e-01	-2.901541e+00	1.812476e+00	1.089065e-01	1.044247e-01	5.619807e-19	1.044247e-01	-1.044247e-01
470           	2.084517e+00	1.147192e+00	9.373248e-01	-2.098676e+00	7.392359e-01	-2.837912e+00	1.788574e+00	1.049338e-01	1.042259e-01	6.587987e-19	1.042259e-01	-1.042259e-01
480           	2.079411e+00	1.141721e+00	9.376902e-01	-2.040304e+00	7.482447e-01	-2.788549e+00	1.768397e+00	1.020152e-01	1.039705e-01	6.587128e-19	1.039705e-01	-1.039705e-01
490           	2.074582e+00	1.137410e+00	9.371727e-01	-2.002371e+00	7.514965e-01	-2.753868e+00	1.752682e+00	1.001186e-01	1.037291e-01	6.884718e-19	1.037291e-01	-1.037291e-01
500           	2.070066e+00	1.134220e+00	9.358458e-01	-1.983739e+00	7.498750e-01	-2.733614e+00	1.741745e+00	9.918695e-02	1.035033e-01	6.682222e-19	1.035033e-01	-1.035033e-01
510           	2.068434e+00	1.133209e+00	9.352250e-01	-1.979836e+00	7.459975e-01	-2.725834e+00	1.735916e+00	9.899182e-02	1.034217e-01	6.419032e-19	1.034217e-01	-1.034217e-01
520           	2.069103e+00	1.133875e+00	9.352281e-01	-1.986466e+00	7.410091e-01	-2.727475e+00	1.734242e+00	9.932331e-02	1.034551e-01	6.333265e-19	1.034551e-01	-1.034551e-01
530           	2.073475e+00	1.136662e+00	9.368138e-01	-1.998478e+00	7.372673e-01	-2.735745e+00	1.736506e+00	9.992388e-02	1.036738e-01	6.458017e-19	1.036738e-01	-1.036738e-01
540           	2.081685e+00	1.141306e+00	9.403794e-01	-2.009263e+00	7.363561e-01	-2.745619e+00	1.740988e+00	1.004632e-01	1.040843e-01	6.450898e-19	1.040843e-01	-1.040843e-01
550           	2.093368e+00	1.147342e+00	9.460266e-01	-2.013152e+00	7.394710e-01	-2.752623e+00	1.746047e+00	1.006576e-01	1.046684e-01	5.830621e-19	1.046684e-01	-1.046684e-01
560           	2.106255e+00	1.153341e+00	9.529137e-01	-2.004274e+00	7.466418e-01	-2.750916e+00	1.748779e+00	1.002137e-01	1.053127e-01	5.002872e-19	1.053127e-01	-1.053127e-01
570           	2.120119e+00	1.159111e+00	9.610076e-01	-1.981036e+00	7.576798e-01	-2.738716e+00	1.748198e+00	9.905182e-02	1.060059e-01	5.049734e-19	1.060059e-01	-1.060059e-01
580           	2.132583e+00	1.163486e+00	9.690975e-01	-1.943883e+00	7.712378e-01	-2.715121e+00	1.743179e+00	9.719414e-02	1.066292e-01	4.934771e-19	1.066292e-01	-1.066292e-01
590           	2.142411e+00	1.166031e+00	9.763809e-01	-1.896497e+00	7.858324e-01	-2.682329e+00	1.734081e+00	9.482485e-02	1.071206e-01	4.837544e-19	1.071206e-01	-1.071206e-01
600           	2.148083e+00	1.166409e+00	9.816744e-01	-1.847348e+00	7.990558e-01	-2.646403e+00	1.722730e+00	9.236738e-02	1.074042e-01	4.759072e-19	1.074042e-01	-1.074042e-01
610           	2.150944e+00	1.164792e+00	9.861525e-01	-1.786394e+00	8.130849e-01	-2.599479e+00	1.706282e+00	8.931968e-02	1.075472e-01	4.718692e-19	1.075472e-01	-1.075472e-01
620           	2.149877e+00	1.161771e+00	9.881054e-01	-1.736657e+00	8.231034e-01	-2.559761e+00	1.691432e+00	8.683287e-02	1.074938e-01	4.662557e-19	1.074938e-01	-1.074938e-01
630           	2.145890e+00	1.157572e+00	9.883175e-01	-1.692547e+00	8.304015e-01	-2.522949e+00	1.676675e+00	8.462736e-02	1.072945e-01	4.614943e-19	1.072945e-01	-1.072945e-01
640           	2.141089e+00	1.153765e+00	9.873244e-01	-1.664401e+00	8.337985e-01	-2.498200e+00	1.665999e+00	8.322007e-02	1.070544e-01	4.655081e-19	1.070544e-01	-1.070544e-01
650           	2.134577e+00	1.149524e+00	9.850531e-01	-1.644705e+00	8.342974e-01	-2.479002e+00	1.656650e+00	8.223523e-02	1.067288e-01	4.684342e-19	1.067288e-01	-1.067288e-01
660           	2.129384e+00	1.146641e+00	9.827430e-01	-1.638981e+00	8.321195e-01	-2.471101e+00	1.651610e+00	8.194905e-02	1.064692e-01	4.683246e-19	1.064692e-01	-1.064692e-01
670           	2.125184e+00	1.144841e+00	9.803431e-01	-1.644980e+00	8.275919e-01	-2.472572e+00	1.650082e+00	8.224902e-02	1.062592e-01	4.609808e-19	1.062592e-01	-1.062592e-01
680           	2.122760e+00	1.144459e+00	9.783011e-01	-1.661576e+00	8.214170e-01	-2.482993e+00	1.652205e+00	8.307878e-02	1.061380e-01	4.447973e-19	1.061380e-01	-1.061380e-01
690           	2.123461e+00	1.145711e+00	9.777501e-01	-1.679612e+00	8.162810e-01	-2.495893e+00	1.656087e+00	8.398062e-02	1.061731e-01	4.251517e-19	1.061731e-01	-1.061731e-01
700           	2.126609e+00	1.148474e+00	9.781350e-01	-1.703388e+00	8.110962e-01	-2.514484e+00	1.662790e+00	8.516939e-02	1.063304e-01	3.816060e-19	1.063304e-01	-1.063304e-01
710           	2.131633e+00	1.151914e+00	9.797196e-01	-1.721940e+00	8.081521e-01	-2.530092e+00	1.669122e+00	8.609702e-02	1.065817e-01	3.612914e-19	1.065817e-01	-1.065817e-01
720           	2.139084e+00	1.156408e+00	9.826759e-01	-1.737324e+00	8.072889e-01	-2.544613e+00	1.675951e+00	8.686619e-02	1.069542e-01	4.203158e-19	1.069542e-01	-1.069542e-01
730           	2.146582e+00	1.160534e+00	9.860476e-01	-1.744865e+00	8.085949e-01	-2.553460e+00	1.681027e+00	8.724324e-02	1.073291e-01	4.630730e-19	1.073291e-01	-1.073291e-01
740           	2.154279e+00	1.164386e+00	9.898931e-01	-1.744932e+00	8.118702e-01	-2.556802e+00	1.684336e+00	8.724658e-02	1.077140e-01	4.931409e-19	1.077140e-01	-1.077140e-01
750           	2.162789e+00	1.168212e+00	9.945775e-01	-1.736342e+00	8.176535e-01	-2.553995e+00	1.685824e+00	8.681709e-02	1.081395e-01	5.215877e-19	1.081395e-01	-1.081395e-01
760           	2.168382e+00	1.170363e+00	9.980191e-01	-1.723436e+00	8.233450e-01	-2.546781e+00	1.685063e+00	8.617180e-02	1.084191e-01	5.472102e-19	1.084191e-01	-1.084191e-01
770           	2.173652e+00	1.171979e+00	1.001673e+00	-1.703056e+00	8.305786e-01	-2.533635e+00	1.682107e+00	8.515280e-02	1.086826e-01	5.756286e-19	1.086826e-01	-1.086826e-01
780           	2.175906e+00	1.172194e+00	1.003711e+00	-1.684828e+00	8.361083e-01	-2.520936e+00	1.678522e+00	8.424140e-02	1.087953e-01	6.049723e-19	1.087953e-01	-1.087953e-01
790           	2.176671e+00	1.171521e+00	1.005150e+00	-1.663704e+00	8.415049e-01	-2.505209e+00	1.673357e+00	8.318522e-02	1.088335e-01	6.382627e-19	1.088335e-01	-1.088335e-01
800           	2.175897e+00	1.170367e+00	1.005530e+00	-1.648377e+00	8.448786e-01	-2.493255e+00	1.669067e+00	8.241885e-02	1.087949e-01	6.709736e-19	1.087949e-01	-1.087949e-01
810           	2.173864e+00	1.168767e+00	1.005098e+00	-1.636688e+00	8.467174e-01	-2.483405e+00	1.665061e+00	8.183440e-02	1.086932e-01	7.033945e-19	1.086932e-01	-1.086932e-01
820           	2.171183e+00	1.167142e+00	1.004041e+00	-1.631008e+00	8.467573e-01	-2.477766e+00	1.662262e+00	8.155042e-02	1.085592e-01	7.364676e-19	1.085592e-01	-1.085592e-01
830           	2.168586e+00	1.165897e+00	1.002689e+00	-1.632079e+00	8.452282e-01	-2.477308e+00	1.661268e+00	8.160397e-02	1.084293e-01	7.709363e-19	1.084293e-01	-1.084293e-01
840           	2.166510e+00	1.165190e+00	1.001321e+00	-1.638690e+00	8.425296e-01	-2.481220e+00	1.661875e+00	8.193450e-02	1.083255e-01	8.024864e-19	1.083255e-01	-1.083255e-01
850           	2.165373e+00	1.165187e+00	1.000186e+00	-1.650009e+00	8.391248e-01	-2.489134e+00	1.664129e+00	8.250045e-02	1.082686e-01	8.177604e-19	1.082686e-01	-1.082686e-01
860           	2.165410e+00	1.165921e+00	9.994888e-01	-1.664321e+00	8.355075e-01	-2.499828e+00	1.667668e+00	8.321603e-02	1.082705e-01	7.807508e-19	1.082705e-01	-1.082705e-01
870           	2.166756e+00	1.167363e+00	9.993932e-01	-1.679697e+00	8.322370e-01	-2.511934e+00	1.672085e+00	8.398483e-02	1.083378e-01	7.474152e-19	1.083378e-01	-1.083378e-01
880           	2.169435e+00	1.169428e+00	1.000007e+00	-1.694218e+00	8.298198e-01	-2.524038e+00	1.676929e+00	8.471089e-02	1.084718e-01	7.157990e-19	1.084718e-01	-1.084718e-01
890           	2.173466e+00	1.172065e+00	1.001402e+00	-1.706628e+00	8.285455e-01	-2.535173e+00	1.681859e+00	8.533139e-02	1.086733e-01	6.835434e-19	1.086733e-01	-1.086733e-01
900           	2.177902e+00	1.174687e+00	1.003215e+00	-1.714711e+00	8.286128e-01	-2.543324e+00	1.685968e+00	8.573557e-02	1.088951e-01	6.542034e-19	1.088951e-01	-1.088951e-01
910           	2.182724e+00	1.177306e+00	1.005418e+00	-1.718883e+00	8.298724e-01	-2.548755e+00	1.689314e+00	8.594413e-02	1.091362e-01	6.249284e-19	1.091362e-01	-1.091362e-01
920           	2.186914e+00	1.179356e+00	1.007558e+00	-1.717983e+00	8.321255e-01	-2.550108e+00	1.691117e+00	8.589915e-02	1.093457e-01	5.950640e-19	1.093457e-01	-1.093457e-01
930           	2.191620e+00	1.181422e+00	1.010198e+00	-1.712238e+00	8.358021e-01	-2.548040e+00	1.691921e+00	8.561190e-02	1.095810e-01	5.680516e-19	1.095810e-01	-1.095810e-01
940           	2.194416e+00	1.182440e+00	1.011976e+00	-1.704644e+00	8.391333e-01	-2.543778e+00	1.691455e+00	8.523222e-02	1.097208e-01	5.435285e-19	1.097208e-01	-1.097208e-01
950           	2.196916e+00	1.183107e+00	1.013809e+00	-1.692980e+00	8.432692e-01	-2.536249e+00	1.689759e+00	8.464901e-02	1.098458e-01	5.332310e-19	1.098458e-01	-1.098458e-01
960           	2.197919e+00	1.183092e+00	1.014827e+00	-1.682651e+00	8.464271e-01	-2.529078e+00	1.687753e+00	8.413256e-02	1.098959e-01	5.466182e-19	1.098959e-01	-1.098959e-01
970           	2.198091e+00	1.182624e+00	1.015467e+00	-1.671575e+00	8.493209e-01	-2.520896e+00	1.685109e+00	8.357877e-02	1.099045e-01	5.547225e-19	1.099045e-01	-1.099045e-01
980           	2.197389e+00	1.181825e+00	1.015564e+00	-1.662609e+00	8.512676e-01	-2.513877e+00	1.682572e+00	8.313046e-02	1.098694e-01	5.605442e-19	1.098694e-01	-1.098694e-01
990           	2.196198e+00	1.180926e+00	1.015272e+00	-1.656537e+00	8.522099e-01	-2.508747e+00	1.680478e+00	8.282686e-02	1.098099e-01	5.650625e-19	1.098099e-01	-1.098099e-01
1000          	2.194535e+00	1.179916e+00	1.014618e+00	-1.652980e+00	8.522782e-01	-2.505258e+00	1.678768e+00	8.264901e-02	1.097267e-01	5.688283e-19	1.097267e-01	-1.097267e-01
1010          	2.193020e+00	1.179189e+00	1.013831e+00	-1.653584e+00	8.513484e-01	-2.504932e+00	1.678140e+00	8.267919e-02	1.096510e-01	5.719462e-19	1.096510e-01	-1.096510e-01
1020          	2.191870e+00	1.178790e+00	1.013080e+00	-1.657101e+00	8.498175e-01	-2.506918e+00	1.678368e+00	8.285505e-02	1.095935e-01	5.746350e-19	1.095935e-01	-1.095935e-01
1030          	2.191297e+00	1.178797e+00	1.012500e+00	-1.662965e+00	8.479588e-01	-2.510924e+00	1.679441e+00	8.314826e-02	1.095648e-01	5.765196e-19	1.095648e-01	-1.095648e-01
1040          	2.191403e+00	1.179215e+00	1.012188e+00	-1.670276e+00	8.460277e-01	-2.516304e+00	1.681166e+00	8.351381e-02	1.095701e-01	5.773937e-19	1.095701e-01	-1.095701e-01
1050          	2.192296e+00	1.180046e+00	1.012250e+00	-1.677955e+00	8.443812e-01	-2.522336e+00	1.683359e+00	8.389775e-02	1.096148e-01	5.776393e-19	1.096148e-01	-1.096148e-01
1060          	2.193887e+00	1.181193e+00	1.012694e+00	-1.684993e+00	8.432232e-01	-2.528216e+00	1.685720e+00	8.424965e-02	1.096944e-01	5.768303e-19	1.096944e-01	-1.096944e-01
1070          	2.195853e+00	1.182428e+00	1.013426e+00	-1.690022e+00	8.427464e-01	-2.532768e+00	1.687757e+00	8.450109e-02	1.097927e-01	5.761584e-19	1.097927e-01	-1.097927e-01
1080          	2.198706e+00	1.184042e+00	1.014664e+00	-1.693777e+00	8.430539e-01	-2.536830e+00	1.689942e+00	8.468883e-02	1.099353e-01	5.743794e-19	1.099353e-01	-1.099353e-01
1090          	2.201429e+00	1.185441e+00	1.015988e+00	-1.694538e+00	8.440605e-01	-2.538599e+00	1.691330e+00	8.472691e-02	1.100714e-01	5.720552e-19	1.100714e-01	-1.100714e-01
1100          	2.203771e+00	1.186519e+00	1.017252e+00	-1.692674e+00	8.455730e-01	-2.538247e+00	1.691910e+00	8.463372e-02	1.101886e-01	5.687538e-19	1.101886e-01	-1.101886e-01
1110          	2.206423e+00	1.187608e+00	1.018815e+00	-1.687926e+00	8.479254e-01	-2.535851e+00	1.691888e+00	8.439630e-02	1.103211e-01	5.646059e-19	1.103211e-01	-1.103211e-01
1120          	2.208049e+00	1.188138e+00	1.019910e+00	-1.682278e+00	8.500660e-01	-2.532344e+00	1.691205e+00	8.411391e-02	1.104024e-01	5.602887e-19	1.104024e-01	-1.104024e-01
1130          	2.209485e+00	1.188449e+00	1.021037e+00	-1.674118e+00	8.526913e-01	-2.526809e+00	1.689750e+00	8.370591e-02	1.104743e-01	5.557461e-19	1.104743e-01	-1.104743e-01
1140          	2.210018e+00	1.188367e+00	1.021651e+00	-1.667158e+00	8.546453e-01	-2.521803e+00	1.688224e+00	8.335790e-02	1.105009e-01	5.551220e-19	1.105009e-01	-1.105009e-01
1150          	2.210077e+00	1.187993e+00	1.022083e+00	-1.659100e+00	8.566012e-01	-2.515701e+00	1.686151e+00	8.295501e-02	1.105038e-01	5.646019e-19	1.105038e-01	-1.105038e-01
1160          	2.209670e+00	1.187518e+00	1.022152e+00	-1.653658e+00	8.577047e-01	-2.511363e+00	1.684534e+00	8.268290e-02	1.104835e-01	5.712595e-19	1.104835e-01	-1.104835e-01
1170          	2.208820e+00	1.186853e+00	1.021967e+00	-1.648857e+00	8.583857e-01	-2.507243e+00	1.682814e+00	8.244284e-02	1.104410e-01	5.767783e-19	1.104410e-01	-1.104410e-01
1180          	2.207834e+00	1.186233e+00	1.021601e+00	-1.646316e+00	8.584411e-01	-2.504757e+00	1.681599e+00	8.231580e-02	1.103917e-01	5.818461e-19	1.103917e-01	-1.103917e-01
1190          	2.206895e+00	1.185754e+00	1.021142e+00	-1.646119e+00	8.579104e-01	-2.504029e+00	1.680970e+00	8.230593e-02	1.103448e-01	5.870549e-19	1.103448e-01	-1.103448e-01
1200          	2.206211e+00	1.185485e+00	1.020726e+00	-1.647586e+00	8.570691e-01	-2.504656e+00	1.680862e+00	8.237932e-02	1.103105e-01	5.930523e-19	1.103105e-01	-1.103105e-01
1210          	2.205796e+00	1.185431e+00	1.020365e+00	-1.650654e+00	8.559466e-01	-2.506601e+00	1.681274e+00	8.253269e-02	1.102898e-01	6.011361e-19	1.102898e-01	-1.102898e-01
1220          	2.205823e+00	1.185643e+00	1.020180e+00	-1.654629e+00	8.547987e-01	-2.509427e+00	1.682113e+00	8.273143e-02	1.102911e-01	6.112250e-19	1.102911e-01	-1.102911e-01
1230          	2.206317e+00	1.186104e+00	1.020214e+00	-1.658900e+00	8.538077e-01	-2.512707e+00	1.683258e+00	8.294498e-02	1.103159e-01	6.225416e-19	1.103159e-01	-1.103159e-01
1240          	2.207205e+00	1.186746e+00	1.020459e+00	-1.662869e+00	8.530723e-01	-2.515941e+00	1.684507e+00	8.314344e-02	1.103603e-01	6.344800e-19	1.103603e-01	-1.103603e-01
1250          	2.208490e+00	1.187544e+00	1.020946e+00	-1.665988e+00	8.527680e-01	-2.518756e+00	1.685762e+00	8.329939e-02	1.104245e-01	6.466359e-19	1.104245e-01	-1.104245e-01
1260          	2.209889e+00	1.188336e+00	1.021554e+00	-1.667821e+00	8.528486e-01	-2.520670e+00	1.686759e+00	8.339107e-02	1.104945e-01	6.586300e-19	1.104945e-01	-1.104945e-01
1270          	2.211511e+00	1.189170e+00	1.022341e+00	-1.668292e+00	8.534054e-01	-2.521697e+00	1.687551e+00	8.341459e-02	1.105755e-01	6.701178e-19	1.105755e-01	-1.105755e-01
1280          	2.213123e+00	1.189914e+00	1.023209e+00	-1.667056e+00	8.543878e-01	-2.521444e+00	1.687916e+00	8.335280e-02	1.106562e-01	6.809884e-19	1.106562e-01	-1.106562e-01
1290          	2.214530e+00	1.190489e+00	1.024041e+00	-1.664484e+00	8.556166e-01	-2.520100e+00	1.687859e+00	8.322419e-02	1.107265e-01	6.911612e-19	1.107265e-01	-1.107265e-01
1300          	2.215708e+00	1.190892e+00	1.024816e+00	-1.660769e+00	8.570522e-01	-2.517821e+00	1.687437e+00	8.303845e-02	1.107854e-01	7.006087e-19	1.107854e-01	-1.107854e-01
1310          	2.216495e+00	1.191065e+00	1.025431e+00	-1.656338e+00	8.584661e-01	-2.514804e+00	1.686635e+00	8.281690e-02	1.108248e-01	7.091367e-19	1.108248e-01	-1.108248e-01
1320          	2.216944e+00	1.191056e+00	1.025888e+00	-1.651679e+00	8.597933e-01	-2.511472e+00	1.685633e+00	8.258395e-02	1.108472e-01	7.168428e-19	1.108472e-01	-1.108472e-01
1330          	2.217036e+00	1.190882e+00	1.026154e+00	-1.647275e+00	8.608867e-01	-2.508162e+00	1.684524e+00	8.236377e-02	1.108518e-01	7.239453e-19	1.108518e-01	-1.108518e-01
1340          	2.216763e+00	1.190552e+00	1.026212e+00	-1.643399e+00	8.616576e-01	-2.505056e+00	1.683357e+00	8.216993e-02	1.108382e-01	7.303996e-19	1.108382e-01	-1.108382e-01
1350          	2.216342e+00	1.190210e+00	1.026132e+00	-1.640785e+00	8.620584e-01	-2.502844e+00	1.682451e+00	8.203926e-02	1.108171e-01	7.365135e-19	1.108171e-01	-1.108171e-01
1360          	2.215792e+00	1.189855e+00	1.025936e+00	-1.639192e+00	8.621051e-01	-2.501297e+00	1.681701e+00	8.195960e-02	1.107896e-01	7.425706e-19	1.107896e-01	-1.107896e-01
1370          	2.215264e+00	1.189582e+00	1.025683e+00	-1.638990e+00	8.618258e-01	-2.500816e+00	1.681321e+00	8.194951e-02	1.107632e-01	7.488724e-19	1.107632e-01	-1.107632e-01
1380          	2.214872e+00	1.189432e+00	1.025440e+00	-1.639925e+00	8.613229e-01	-2.501248e+00	1.681285e+00	8.199623e-02	1.107436e-01	7.556056e-19	1.107436e-01	-1.107436e-01
1390          	2.214627e+00	1.189403e+00	1.025224e+00	-1.641791e+00	8.606392e-01	-2.502430e+00	1.681535e+00	8.208954e-02	1.107314e-01	7.627799e-19	1.107314e-01	-1.107314e-01
1400          	2.214670e+00	1.189549e+00	1.025121e+00	-1.644277e+00	8.599535e-01	-2.504230e+00	1.682092e+00	8.221384e-02	1.107335e-01	7.705544e-19	1.107335e-01	-1.107335e-01
1410          	2.214949e+00	1.189824e+00	1.025126e+00	-1.646980e+00	8.593119e-01	-2.506292e+00	1.682802e+00	8.234900e-02	1.107475e-01	7.789684e-19	1.107475e-01	-1.107475e-01
1420          	2.215507e+00	1.190231e+00	1.025277e+00	-1.649541e+00	8.588503e-01	-2.508391e+00	1.683621e+00	8.247704e-02	1.107754e-01	7.880879e-19	1.107754e-01	-1.107754e-01
1430          	2.216290e+00	1.190726e+00	1.025564e+00	-1.651623e+00	8.586279e-01	-2.510251e+00	1.684440e+00	8.258117e-02	1.108145e-01	7.977508e-19	1.108145e-01	-1.108145e-01
1440          	2.217141e+00	1.191216e+00	1.025924e+00	-1.652923e+00	8.586341e-01	-2.511557e+00	1.685095e+00	8.264614e-02	1.108570e-01	8.077730e-19	1.108570e-01	-1.108570e-01
1450          	2.218163e+00	1.191752e+00	1.026411e+00	-1.653415e+00	8.589576e-01	-2.512373e+00	1.685665e+00	8.267075e-02	1.109082e-01	8.178467e-19	1.109082e-01	-1.109082e-01
1460          	2.219164e+00	1.192227e+00	1.026937e+00	-1.652896e+00	8.595043e-01	-2.512400e+00	1.685952e+00	8.264480e-02	1.109582e-01	8.276108e-19	1.109582e-01	-1.109582e-01
1470          	2.220103e+00	1.192628e+00	1.027475e+00	-1.651526e+00	8.602685e-01	-2.511794e+00	1.686031e+00	8.257628e-02	1.110052e-01	8.369215e-19	1.110052e-01	-1.110052e-01
1480          	2.220868e+00	1.192904e+00	1.027964e+00	-1.649391e+00	8.611358e-01	-2.510527e+00	1.685831e+00	8.246954e-02	1.110434e-01	8.454931e-19	1.110434e-01	-1.110434e-01
1490          	2.221429e+00	1.193054e+00	1.028375e+00	-1.646784e+00	8.620252e-01	-2.508810e+00	1.685417e+00	8.233922e-02	1.110715e-01	8.532115e-19	1.110715e-01	-1.110715e-01
1500          	2.221807e+00	1.193103e+00	1.028705e+00	-1.643982e+00	8.628957e-01	-2.506878e+00	1.684887e+00	8.219912e-02	1.110904e-01	8.610679e-19	1.110904e-01	-1.110904e-01
1510          	2.221925e+00	1.193025e+00	1.028900e+00	-1.641256e+00	8.635987e-01	-2.504855e+00	1.684227e+00	8.206280e-02	1.110963e-01	8.691162e-19	1.110963e-01	-1.110963e-01
1520          	2.221898e+00	1.192893e+00	1.029005e+00	-1.638882e+00	8.641608e-01	-2.503042e+00	1.683602e+00	8.194408e-02	1.110949e-01	8.768248e-19	1.110949e-01	-1.110949e-01
1530          	2.221719e+00	1.192716e+00	1.029002e+00	-1.637138e+00	8.644766e-01	-2.501615e+00	1.683046e+00	8.185690e-02	1.110859e-01	8.844031e-19	1.110859e-01	-1.110859e-01
1540          	2.221418e+00	1.192502e+00	1.028916e+00	-1.635859e+00	8.646002e-01	-2.500460e+00	1.682530e+00	8.179297e-02	1.110709e-01	8.921653e-19	1.110709e-01	-1.110709e-01
1550          	2.221181e+00	1.192367e+00	1.028813e+00	-1.635541e+00	8.645362e-01	-2.500077e+00	1.682307e+00	8.177704e-02	1.110590e-01	9.001716e-19	1.110590e-01	-1.110590e-01
1560          	2.220951e+00	1.192269e+00	1.028682e+00	-1.635871e+00	8.642819e-01	-2.500153e+00	1.682217e+00	8.179354e-02	1.110476e-01	9.086329e-19	1.110476e-01	-1.110476e-01
1570          	2.220855e+00	1.192269e+00	1.028586e+00	-1.636827e+00	8.639469e-01	-2.500773e+00	1.682360e+00	8.184133e-02	1.110427e-01	9.175557e-19	1.110427e-01	-1.110427e-01
1580          	2.220893e+00	1.192355e+00	1.028538e+00	-1.638171e+00	8.635725e-01	-2.501744e+00	1.682658e+00	8.190855e-02	1.110447e-01	9.270289e-19	1.110447e-01	-1.110447e-01
1590          	2.221076e+00	1.192522e+00	1.028554e+00	-1.639680e+00	8.632157e-01	-2.502896e+00	1.683056e+00	8.198402e-02	1.110538e-01	9.369867e-19	1.110538e-01	-1.110538e-01
1600          	2.221450e+00	1.192782e+00	1.028667e+00	-1.641150e+00	8.629783e-01	-2.504128e+00	1.683553e+00	8.205749e-02	1.110725e-01	9.473114e-19	1.110725e-01	-1.110725e-01
1610          	2.221923e+00	1.193079e+00	1.028844e+00	-1.642349e+00	8.628430e-01	-2.505192e+00	1.684017e+00	8.211745e-02	1.110962e-01	9.576231e-19	1.110962e-01	-1.110962e-01
1620          	2.222556e+00	1.193435e+00	1.029121e+00	-1.643141e+00	8.629027e-01	-2.506044e+00	1.684473e+00	8.215707e-02	1.111278e-01	9.678682e-19	1.111278e-01	-1.111278e-01
1630          	2.223158e+00	1.193749e+00	1.029409e+00	-1.643397e+00	8.630908e-01	-2.506488e+00	1.684790e+00	8.216987e-02	1.111579e-01	9.778601e-19	1.111579e-01	-1.111579e-01
1640          	2.223805e+00	1.194055e+00	1.029751e+00	-1.643038e+00	8.634503e-01	-2.506488e+00	1.684969e+00	8.215190e-02	1.111903e-01	9.875847e-19	1.111903e-01	-1.111903e-01
1650          	2.224436e+00	1.194326e+00	1.030110e+00	-1.642161e+00	8.639509e-01	-2.506112e+00	1.685032e+00	8.210806e-02	1.112218e-01	9.969629e-19	1.112218e-01	-1.112218e-01
1660          	2.224946e+00	1.194512e+00	1.030434e+00	-1.640782e+00	8.644996e-01	-2.505282e+00	1.684891e+00	8.203910e-02	1.112473e-01	1.005875e-18	1.112473e-01	-1.112473e-01
1670          	2.225392e+00	1.194650e+00	1.030742e+00	-1.639075e+00	8.651262e-01	-2.504202e+00	1.684664e+00	8.195377e-02	1.112696e-01	1.014314e-18	1.112696e-01	-1.112696e-01
1680          	2.225676e+00	1.194697e+00	1.030979e+00	-1.637187e+00	8.657060e-01	-2.502893e+00	1.684300e+00	8.185936e-02	1.112838e-01	1.016599e-18	1.112838e-01	-1.112838e-01